119
Lattice="10.696269355366066 0.0 0.0 0.0 10.696269355366066 0.0 0.0 0.0 10.696269355366066" Properties=species:S:1:pos:R:3:momenta:R:3 charge=-1 spin=1 external_field="_JSON [0.0, 0.0, 0.0]" TEMP=350.0 frame=110 VACF=0.0010679595854663554 "time /fs"=55.0 pbc="T T T"
O        0.38608332      -0.16574942      -0.57508646      -0.41488156       1.80877110       0.15394950
H        0.31108108       0.77648539      -0.95389174      -0.16729094       0.19171459      -0.13238919
H        0.94881537      -0.61915372      -1.31428854      -0.09854643      -0.01321824      -0.19165004
O       15.62236852      10.33855210      10.78334473       0.66463329       0.47277411      -0.59888748
H       16.34280375       9.81913327      11.29080212      -0.11850627       0.08874823       0.14589664
H       14.79933576       9.90144283      10.94715979       0.03442921      -0.01329785       0.36856833
O       -0.08632197       2.32323472      -1.76490251      -0.19742311      -0.55029368      -0.38553571
H       -1.08968526       2.32991229      -1.82655923       0.08597532       0.18046480       0.05365452
H        0.04280037       2.90143981      -0.96381199      -0.13377761       0.03008666       0.07099864
O       10.96050501       7.36474772      14.32105602      -0.31887038      -0.84692675      -1.12415117
H       10.86411908       8.24998034      13.87523710      -0.15084533       0.17827498      -0.22101754
H       11.77628951       7.47416750      14.88936743      -0.00270309       0.20188634       0.13793040
O       12.65476421       4.58374965      -7.36412635      -1.04002944      -0.25016909       1.44933855
H       12.58675567       5.13771454      -6.56074607       0.03333259       0.10395383      -0.13524689
H       13.50889610       4.15114652      -7.34714140       0.14204104       0.05701299       0.01057819
O       15.10260333       1.71583931       8.64015651       0.32517079      -1.07478958      -0.71649499
H       15.97258071       2.16291837       8.71960459      -0.12311736      -0.03228428      -0.05438310
H       15.20207004       1.02277102       9.35799264      -0.13731500       0.05167468       0.03995773
O        5.61611240       7.35730098      13.99324855       0.03973292       0.46988219      -0.66597749
H        5.92077234       7.29038306      13.04122491       0.00535125      -0.06732900       0.01481664
H        6.27259820       8.00426498      14.36517449       0.13639864      -0.09265911       0.03524880
O        8.38779436      11.02856264      13.86576453      -0.47781852      -0.05527174      -0.22481869
H        5.47207425      16.60632575      15.29975302       0.27370110      -0.11367512      -0.02046430
H        8.27677044      11.85912215      13.48099151      -0.02099025      -0.22042613       0.12310844
O       10.21785125       0.39758638       5.68944637      -0.02191963       0.01631509       0.13132600
H        7.53787997       3.15798135       9.14511227       0.25657082       0.00525383       0.15030004
H        9.64180540       0.41505567       4.88993059       0.02509322       0.01318162       0.14107847
O        5.34813468       5.34813468       5.34813468      -0.57649965       0.26598856      -0.32374510
H        4.99171770       4.49532931       4.93782451       0.11261666      -0.03121841      -0.04903979
H        9.57131338       0.01395286       6.29764864      -0.02051745       0.10924571      -0.20508256
O        8.69332775       9.35253783       9.56108674      -0.08765417       0.92954129      -0.79078888
H        8.78411632       8.40548870       9.26329173       0.11691975      -0.00886442       0.00458263
H        9.56083593       9.80897049       9.66559537      -0.16852057       0.07463134       0.20220788
O        7.96038074       2.73578626       7.32526484      -0.14504083       0.83694761       0.25305795
H        8.00198858       1.80159133       7.11137492       0.23701153       0.01658610      -0.11783104
H        8.73134472       3.13473377       6.90528857      -0.14415035       0.11405721       0.01541552
O       13.62520812       8.63741291      10.42817670       0.47794296      -0.20177274       0.14672064
H       13.03099934       8.02559498      10.93367729      -0.10972186      -0.14300591      -0.07768946
H       14.30827676       7.98344185      10.06465276       0.12732152       0.00807737      -0.15457695
O       13.43314164       7.80660380       7.25735422       0.04976130       0.72466609      -0.05203035
H       12.71105024       7.26930106       7.62304463       0.21124579      -0.05967100       0.12833251
H       13.44012422       7.79914709       6.22953021       0.05426919      -0.07877121      -0.07586237
O       15.22686044      11.66714359       5.67912767      -0.02499403      -0.04708926      -0.56893727
H       14.38527755      11.21145130       5.92023079      -0.04749431      -0.06546186      -0.08900508
H       15.49978109      12.11285495       6.49931708       0.25627882      -0.05766292      -0.41019438
O       17.28798270       9.81534954      15.23602874       0.20559392      -0.96766105      -0.31249501
H       17.92112691      10.40648764      14.74611856      -0.06510936      -0.07916434       0.07194558
H       16.61046082      10.39550026      15.66472090       0.02083707       0.03058048       0.20974823
O        9.84105812       3.69943374       5.68193324      -0.30747667      -0.05257114       1.69800126
H        9.48269269       4.41476856       5.11450797       0.06385093       0.15261767       0.26165253
H       10.32431977       3.09736104       5.06035626       0.06064999       0.07415099       0.03042438
O        5.69049501      17.58423117      10.72905564      -0.20928006       0.32352428      -0.59250402
H        5.53854988      18.07769550       9.87098135       0.02443313       0.17787935       0.13541810
H        5.38548623      16.72595087      10.44869610       0.13883447       0.30916335      -0.09088603
O        4.70516427       2.90542370       3.80958366      -1.40757894      -0.36853742      -0.46628694
H        4.42490244       2.07099880       4.23286826       0.27614304       0.00602023      -0.06663516
H        5.15114348       2.69484841       2.98674220       0.11700880       0.22694356       0.08488111
O       16.11527143       8.34086194       8.29976538       0.36403524      -1.43020283      -0.22093356
H       16.22552892       9.22345971       8.67803522      -0.14331355       0.28469536      -0.40209832
H       15.27192326       8.32369137       7.85235181       0.16200670      -0.05408249       0.17583963
O       15.20802888      14.92003011       0.64169009      -0.71833040       0.12117615       0.92860911
H       14.93180789      14.73613164      -0.28168002       0.05879264       0.09049074       0.03513638
H       15.69891842      14.09633024       0.90472137      -0.09008559       0.11614806       0.02907987
O        6.11118565       2.31557139      12.29517794       1.16387304       0.06446753       2.29929375
H        5.93600663       1.48310013      11.82305305      -0.26713660       0.11701287       0.02584260
H        6.99437572       2.54753483      11.90964399       0.47638476       0.01354886       0.06600521
O       13.48015178       6.62436858      12.67912137       0.48205358      -0.12419219       1.30217780
H       12.91884087       5.83647061      12.97716015       0.13324937      -0.17474646       0.04597965
H       14.25969396       6.18338229      12.33902897       0.04539937      -0.20082746       0.35572594
O       10.64525895      15.68740324      11.13964835      -0.54765048       0.25061612      -0.20774520
H        9.78842005      16.18052389      11.24589331      -0.30700886      -0.12711477       0.12059007
H       11.04921263      16.01053387      12.00661231      -0.14170837      -0.17840957      -0.08304507
O       13.15423720      10.47943470      -3.33833029       0.04061942      -1.41010044       0.59152578
H       13.59401506      10.95587942      -2.63021885      -0.22279717       0.22271612      -0.41120205
H       13.28915495       9.50219801      -3.36300560       0.17966987      -0.02655727       0.02859176
O       10.90325101      -0.73091864      13.00471573      -0.49777693       1.29072767       0.18687381
H        9.97597596      -0.37374422      13.25106639      -0.16105927      -0.17424496      -0.03195292
H       10.96500438      -0.74417207      12.05219607       0.08886944      -0.05542997      -0.05627529
O        7.92322872       5.62749243      11.74721510       0.28833377      -1.11528237       0.87172867
H        7.85542750       5.78405783      12.74822901      -0.38783375      -0.05823119      -0.14238975
H        7.22180111       6.15157481      11.34850192       0.01454433      -0.15348892       0.09855090
O        7.05728072       3.23485282      10.01111235       0.68379919      -0.32974655       1.08748369
H        7.31091683       4.14049582      10.09496218      -0.04312780      -0.01085623      -0.11490638
H       11.56320347       4.50175664       6.26072082      -0.10608448      -0.04061393      -0.10025016
O       17.76499658       9.22197164      11.96451453      -0.28470831      -0.53093590      -0.90761740
H       18.35193063       9.33298517      11.19428571       0.11174782       0.22725447       0.16911974
H       18.14803578       9.83182354      12.69279300      -0.17597602       0.47913795      -0.11880866
O       12.85864055       0.32702095      14.83828628       1.62945046      -0.45275374      -0.37547753
H       12.29951366       0.73794963      15.49628498      -0.22219220      -0.02418139       0.14636253
H       12.30172259       0.25285568      14.06193665       0.15555898      -0.15512531      -0.21217786
O        8.49922735       8.21267445       5.52243751       0.17050880      -1.29688498       0.40474885
H        7.72193783       8.84988161       5.28099672       0.05644848       0.23453473      -0.04000263
H        9.25284136       8.64712466       5.02220316       0.01773386      -0.01172567       0.00993570
O       18.41080383       0.08502795       7.49689273       1.14267969       0.72044394      -0.70317694
H       18.68784259      -0.55215690       8.26448689       0.39951116       0.29289582       0.00598447
H       17.76689898      -0.32905494       6.93424142      -0.40043875       0.04108961       0.08583666
O       11.32216404       6.95793351      19.50440625      -0.55017955       0.33559082      -0.23326654
H       10.43778546       6.68144634      19.11573171       0.00630531      -0.08497737       0.26053021
H       11.52857242       6.27965922      20.14641792       0.09289788       0.19786643      -0.06058627
O       13.16443287       8.36337375       4.53705288      -0.96112706       0.08638210      -1.38808069
H       13.72599166       7.93252135       3.81703356       0.15384711      -0.05183320      -0.05033019
H       12.99556529       9.30043517       4.31190962      -0.09072691      -0.02211268       0.18565904
O       19.36246180       5.84237114       4.04301289      -0.79928086       0.15956051      -0.02861303
H       19.09267557       6.36936836       4.79308017      -0.27788832      -0.30773905      -0.28433160
H       20.18580676       6.25316611       3.72418049       0.12287536      -0.16183491       0.16068414
O        8.46746397      -3.58094427       7.94991441       0.20104658      -0.50223899       0.62317408
H        8.40215160      -3.07812286       7.14045611      -0.15449793      -0.20097502      -0.21288991
H        7.75995427      -4.21633643       7.89577943       0.02966519      -0.03017076      -0.05101537
O       16.52742241       4.52708748       7.54349657       0.21750540      -0.24864524      -0.49957318
H       16.31542750       4.95750001       6.68520357      -0.12307340       0.22823387      -0.00275817
H       17.08999747       3.77519715       7.36246584      -0.04011234      -0.18797348       0.14790601
O       12.66989931       2.47085810       0.69884354       0.00167912       0.66960949      -0.20858451
H       13.01094017       3.29272115       1.07870381      -0.36055110       0.17390289      -0.20307042
H       12.82379787       1.69633620       1.26389981       0.02168748      -0.28534766      -0.08114509
O        3.22170085      15.11372529       8.32416171       0.45274744      -0.19524250      -0.13041943
H        3.17249770      14.15532400       8.38122575      -0.31861635      -0.21637641       0.19806516
H        4.14429501      15.31678550       7.95719694      -0.00226748      -0.15861424      -0.03616185
O       12.42311504       4.90571804       6.09377854       1.33882842       1.67765020      -0.18690287
H       12.92680455       4.73163393       6.91872427       0.05611917      -0.06475974      -0.21578405
119
Lattice="10.684140861604636 0.0 0.0 0.0 10.684140861604636 0.0 0.0 0.0 10.684140861604636" Properties=species:S:1:pos:R:3:momenta:R:3 charge=-1 spin=1 external_field="_JSON [0.0, 0.0, 0.0]" TEMP=350.0 frame=120 VACF=0.005189336098375072 "time /fs"=60.0 pbc="T T T"
O        0.40273994      -0.11078484      -0.56457089      -0.30529214       1.95545879      -0.34267681
H        0.26291634       0.75912482      -0.93373068      -0.14328697      -0.02631676       0.04367305
H        0.84692840      -0.56051338      -1.22557592      -0.11364280      -0.00078253       0.05539887
O       15.65115515      10.34002827      10.77609934       0.37478824       0.52313626      -0.40458680
H       16.29132680       9.88798448      11.33149478       0.09511253       0.13719793       0.08092386
H       14.81689737       9.87811077      11.09998390       0.20264293       0.11854802       0.11047162
O       -0.07192394       2.30689612      -1.74367312      -0.17301151      -0.28793486       0.17177604
H       -1.01167124       2.38745802      -1.84370265      -0.18040501       0.08690049      -0.26109141
H        0.06370726       2.86247538      -0.98119066       0.16504221      -0.04944973      -0.06368944
O       10.96119359       7.33640528      14.28959110      -0.50148357      -0.42890947      -1.21268924
H       10.84436189       8.16182340      13.82920503      -0.02563895      -0.34304664      -0.08048238
H       11.68905799       7.57004144      14.86982879      -0.23037496       0.21585618      -0.11887022
O       12.63367660       4.56299226      -7.29638666      -0.82598791      -0.64451278       1.08919381
H       12.62971024       5.15319306      -6.51880303       0.07641355       0.01785407       0.20065010
H       13.53701778       4.17763204      -7.26899187      -0.16865076       0.09709564       0.17324196
O       15.12062531       1.67410388       8.63214090       0.29693892      -1.22914949      -0.68043379
H       15.93809139       2.18545128       8.70904335       0.01917539       0.16053541      -0.00975372
H       15.13647707       1.06811511       9.37092005      -0.12068479       0.01498196       0.12952102
O        5.64051184       7.36061967      13.97695287       0.15170504       0.31642384      -0.47589422
H        5.90266474       7.26318712      13.07614353      -0.05014870      -0.01632402      -0.19310799
H        6.27804739       7.94322124      14.36814668      -0.02242264       0.05118779       0.03778686
O        8.39201111      10.99528105      13.86811965      -0.28863975      -0.60291830      -0.14467076
H        5.63271854      16.61670206      15.24908837       0.20754243       0.02308849       0.06946154
H        8.25094923      11.92508013      13.48305761      -0.06855880       0.04499483       0.09455946
O       10.22817391       0.39532916       5.70218570      -0.16789181       0.00805689      -0.15166389
H        7.61232194       3.03768157       9.24093917       0.04407445      -0.38772821       0.13286123
H        9.67701274       0.45297809       4.88403543       0.05533188       0.13685789      -0.20091676
O        5.34207043       5.34207043       5.34207043      -0.79040706       0.38479966      -1.13790837
H        5.10095839       4.51442332       4.94422868       0.15791493      -0.10940254      -0.10801363
H        9.55771954       0.04454445       6.33472646      -0.02646640       0.06665678       0.20380264
O        8.69931701       9.36544675       9.54548493      -0.39938402       0.97869457      -0.76733177
H        8.86772229       8.46915325       9.27680786       0.16725540       0.10670943      -0.05140644
H        9.55164711       9.79307258       9.79677810       0.04750428      -0.07219285       0.28059958
O        7.96982762       2.75371944       7.34945429      -0.07426978       0.61995773       0.41618709
H        8.10141599       1.80159303       7.10780416       0.08016166       0.14352566       0.08502698
H        8.70983272       3.21620752       6.85776030      -0.12212346       0.17196604      -0.17659165
O       13.64729521       8.60779851      10.44058785       0.20913432      -0.47330511       0.18337643
H       13.06592116       8.01427987      10.88690448       0.08043557      -0.00194229      -0.03890905
H       14.28482306       8.07248255      10.04837960       0.08108169       0.10207066      -0.13691370
O       13.45061851       7.82029541       7.25960426       0.46440391       0.86584560      -0.11954261
H       12.78728233       7.22890021       7.67776222       0.09841292      -0.01987042       0.03223443
H       13.42834067       7.72007471       6.33704081      -0.12400487      -0.21350676       0.00366789
O       15.23047722      11.64225918       5.66888260      -0.00674937      -0.44781674      -1.03150787
H       14.42093482      11.19449586       5.91620520       0.05345054       0.01395924       0.07347598
H       15.62926982      12.11224411       6.43106208       0.18957306       0.07777074       0.03364779
O       17.29240526       9.77372826      15.23824017       0.00591724      -0.85140213       0.09707122
H       17.94693333      10.41455228      14.71991496       0.08015556       0.07326893      -0.13645541
H       16.67298783      10.33088582      15.69528164       0.09396032      -0.14166681      -0.02447845
O        9.84827015       3.69237855       5.74415156      -0.19180439       0.21749534       1.62312853
H        9.51392272       4.46382363       5.24030093       0.00868234       0.06927626       0.18228251
H       10.32081816       3.15048559       5.13727873       0.00783304       0.00347864       0.04172657
O        5.70220987      17.57928907      10.71730494      -0.20796724       0.45125977      -0.58571090
H        5.63014367      18.17663576       9.96151442       0.23372544       0.34619840       0.04857272
H        5.40050290      16.66503114      10.41938158      -0.06427814      -0.13210335      -0.02763672
O        4.67601022       2.89726479       3.81250961      -1.62585731       0.18506050      -0.49671852
H        4.57770254       2.02463331       4.25485307       0.26159627      -0.15206195       0.07962042
H        5.26781156       2.77444713       3.03365334       0.20786812       0.13434433       0.14460077
O       16.13928587       8.29359310       8.30974028       0.51802657      -0.79045436      -0.00539078
H       16.16033611       9.25079347       8.48973091      -0.10149938      -0.15497906      -0.38567199
H       15.22018077       8.23781814       7.88200445      -0.14001815      -0.28736403       0.01280531
O       15.18880301      14.90774036       0.68648509      -1.00485004       0.50040822       0.77755590
H       14.94804891      14.76989485      -0.23116540      -0.04955051       0.09485861      -0.01685408
H       15.70311112      14.13933432       0.95226150       0.15008989       0.01099653       0.11851506
O        6.17787686       2.30850073      12.36534597       1.80687732      -0.21586065       1.95722076
H        5.81656095       1.54549979      11.87113699      -0.22270954       0.18729155       0.13832784
H        7.01569729       2.53265937      12.01143916      -0.26077992      -0.04368990       0.20422776
O       13.50211003       6.60632025      12.72275334       0.66456690      -0.30258961       1.03105114
H       13.02268023       5.84455645      13.02242521       0.04376342       0.05369879       0.20094626
H       14.32417861       6.11385104      12.49521689       0.10008093       0.05482923       0.27025695
O       10.63163627      15.68280123      11.14350344      -1.13090787       0.58862289      -0.38765358
H        9.73076974      16.00187802      11.25994017      -0.05910254      -0.43510363      -0.04094129
H       11.04938975      15.86362211      11.97743614       0.19409324      -0.23110359       0.22234412
O       13.15635801      10.42237610      -3.30824846      -0.43260686      -1.24225546      -0.09802037
H       13.59070877      11.05894807      -2.69350039       0.10647512       0.16759138      -0.05160202
H       13.39995823       9.47601514      -3.23362235       0.23314334      -0.03618215       0.38758872
O       10.89486347      -0.69271623      13.01843355      -0.62014770       1.23302266       0.13025779
H        9.97211803      -0.44768461      13.21002655      -0.06125970      -0.05036239      -0.11372957
H       10.99849732      -0.74598124      12.04244304      -0.01654183       0.06652905       0.13772638
O        7.94820747       5.58363151      11.78377810       0.22653452      -1.09975136       0.66619722
H        7.71487886       5.72035726      12.69654786      -0.25022025      -0.13942161       0.26036373
H        7.22174600       6.12244961      11.36426431       0.04147894      -0.00563588      -0.05804283
O        7.10292128       3.21958671      10.04257977       1.19928649      -0.01677236       0.55105471
H        7.25497151       4.19959174      10.17604954      -0.26967367      -0.04143638       0.29740817
H       11.60668030       4.52044632       6.20031361       0.25786679       0.14760776      -0.17211111
O       17.76471822       9.20329753      11.95400387       0.03466107       0.12778073      -0.38508049
H       18.42380219       9.39647596      11.25021355       0.10865678       0.02870691       0.00772951
H       18.02210447       9.93142379      12.54208331      -0.31618879       0.05453724      -0.32596222
O       12.91202505       0.31462676      14.83214395       1.09469278      -0.16470949      -0.30918442
H       12.26329438       0.64222701      15.48834743       0.09198808      -0.37723231      -0.26081286
H       12.37354836       0.17083774      14.01375657       0.16560421      -0.14137135       0.12014583
O        8.51351417       8.17497230       5.54216877      -0.25763565      -0.65942292       0.16121975
H        7.84165933       8.82539722       5.32221444       0.16766900      -0.13795802       0.10312925
H        9.25960497       8.53857998       5.10318126       0.23416589      -0.25402444       0.09747709
O       18.44645091       0.10119208       7.48576409       0.82391404       0.67881949      -1.09499943
H       18.82371186      -0.39435609       8.20777090       0.19855431       0.15599219      -0.05915273
H       17.67621889      -0.31363092       7.07071643       0.10468746       0.06138821       0.47749161
O       11.31477158       6.95983574      19.49240235      -0.34861285       0.41718515      -0.20334357
H       10.45223413       6.64907404      19.23575393      -0.25903709      -0.08556413       0.12438346
H       11.59145319       6.30289283      20.18013956       0.07665475       0.07050085       0.08438089
O       13.15236592       8.34372298       4.50891298      -0.66328700      -0.36566492      -1.18213938
H       13.73513065       7.99051999       3.87147146       0.05194720       0.20163006      -0.04190752
H       12.99926142       9.31863186       4.40159199       0.09904877       0.08377454       0.11005324
O       19.34459662       5.82446171       4.04718147      -0.56365702      -0.57084580      -0.51141606
H       18.92314204       6.36273196       4.78283759      -0.29523885       0.16272633      -0.04292543
H       20.23168037       6.21970186       3.86269525      -0.00905604       0.06340930       0.34113338
O        8.48795595      -3.59634864       7.97916172       0.03637224      -0.61270556       0.28750034
H        8.39721695      -3.16135511       7.06404029       0.11411810      -0.23190237       0.07315914
H        7.75990536      -4.25681029       7.91974618       0.03015742      -0.04177543       0.13265846
O       16.53817730       4.51252585       7.54965108       0.17205524      -0.25859647       0.12141676
H       16.34740895       5.02011068       6.71839118       0.23945604       0.00525504       0.08731748
H       17.08864661       3.71674175       7.40504583      -0.03462201       0.08266479      -0.03557573
O       12.67571107       2.47665309       0.70665557      -0.29179585       0.21248013      -0.71602842
H       12.88923824       3.33800805       1.08339927      -0.17126575       0.02851275       0.16514404
H       12.85494727       1.72420083       1.22893995       0.09942338       0.27504061      -0.00994848
O        3.25446819      15.08361661       8.33321352       0.10961331      -0.57050785       0.10549983
H        3.08810247      14.14073811       8.47716860      -0.10783941       0.26983702       0.14099733
H        4.14752905      15.14729746       7.99052241       0.18380167      -0.39682832       0.02367812
O       12.46508529       4.94813195       6.09919502       0.75712382       1.63020081      -0.36051927
H       13.00654409       4.69916961       6.87924534       0.20305482      -0.04199552       0.00176219
119
Lattice="10.672825628290552 0.0 0.0 0.0 10.672825628290552 0.0 0.0 0.0 10.672825628290552" Properties=species:S:1:pos:R:3:momenta:R:3 charge=-1 spin=1 external_field="_JSON [0.0, 0.0, 0.0]" TEMP=350.0 frame=130 VACF=0.0073434470053071604 "time /fs"=65.0 pbc="T T T"
O        0.41340685      -0.07273791      -0.52089428      -0.32123061       1.44209039      -0.27284450
H        0.21559399       0.84692462      -0.91889943      -0.08377159       0.17374096      -0.11013153
H        0.90748811      -0.62759090      -1.23413876      -0.02660115       0.13290398       0.11575954
O       15.66860116      10.33258947      10.80167346       0.65810155       0.78233379      -0.14934766
H       16.41856107       9.92554994      11.35964691       0.20359306       0.18486162      -0.22449628
H       14.87695894       9.91295196      11.13076287      -0.18645214      -0.00762849      -0.01134015
O       -0.05919056       2.27989459      -1.69128007      -0.60099850      -0.20120193       0.24998329
H       -0.99802420       2.41047915      -1.94385666       0.29895630       0.11569219      -0.24887424
H        0.19917280       2.86231025      -0.92215667       0.16058539       0.00714864      -0.07608708
O       10.95089143       7.29049212      14.28614748      -0.87686938      -0.71394189      -1.03011616
H       10.80616446       8.10323972      13.69227222      -0.12430758      -0.07173503      -0.40242120
H       11.68727962       7.63857557      14.88495630       0.01723855       0.11257352      -0.10016782
O       12.61751205       4.52596356      -7.20675598      -0.91489369      -0.43924217       1.28857626
H       12.64415375       5.06195571      -6.39206007      -0.09341943      -0.27212385       0.12746689
H       13.50902232       4.12761199      -7.12731574       0.03614735      -0.23966286       0.15229986
O       15.14098319       1.62104215       8.64844741       0.49370739      -1.20335692      -0.49155343
H       15.89943295       2.20665172       8.76652678      -0.19476825      -0.00240238       0.09303105
H       15.12668012       1.06669116       9.47389904       0.05112687       0.14277418       0.00190047
O        5.66299988       7.34122778      13.99243434       0.31447358       0.06809045      -0.62156275
H        5.89026700       7.27315596      13.03531194      -0.10729185       0.18360006       0.10312994
H        6.27818308       8.01291031      14.39918492      -0.19196603       0.18321869      -0.14815435
O        8.39812221      10.95294008      13.89224815      -0.22949222      -0.90808530      -0.10914775
H        5.70058719      16.57732236      15.35430876       0.11857104       0.15717398      -0.04933300
H        8.24673366      11.81723514      13.62612147      -0.10074923       0.16630044       0.15962345
O       10.22871020       0.37849053       5.73266713      -0.42405356       0.02503669      -0.52165803
H        7.64145374       2.88477208       9.31369760      -0.00154421      -0.03848307       0.06880781
H        9.74187344       0.48473199       4.89875940       0.08405875       0.02979327       0.08920196
O        5.33641281       5.33641281       5.33641281      -0.92174160       0.15977029      -1.60120738
H        5.18881771       4.43565444       4.90752754       0.16282677       0.11323533      -0.10791271
H        9.62275732       0.10494528       6.40441840       0.07854749       0.17434221       0.00817730
O        8.70570192       9.37484697       9.56178478      -0.08211868       1.03632295      -0.53425289
H        8.94204623       8.45426680       9.25568774       0.00134148       0.13324268      -0.12521538
H        9.55182628       9.70943394       9.94711162      -0.09439134      -0.10407940       0.17395549
O        7.98823356       2.75763068       7.40039101       0.13103276       0.88485699       0.54351911
H        8.11656487       1.81857320       7.20210709      -0.07023053      -0.12169504       0.09912527
H        8.60792592       3.23278812       6.82975143      -0.23864974       0.02734526      -0.15197024
O       13.66081741       8.57569479      10.47890933       0.18829918      -0.39587081      -0.00940708
H       13.09217353       7.91927528      10.96854444       0.17610104      -0.12745619       0.09007960
H       14.37227280       8.04617803      10.00562368      -0.08637352       0.11578446       0.03881370
O       13.47799850       7.81969836       7.29899373       0.66745351       0.55055201      -0.25426480