119
Lattice="10.621595333315769 0.0 0.0 0.0 10.621595333315769 0.0 0.0 0.0 10.621595333315769" Properties=species:S:1:pos:R:3:momenta:R:3 charge=-1 spin=1 external_field="_JSON [0.0, 0.0, 0.0]" TEMP=350.0 frame=170 VACF=-0.00247593874362601 "time /fs"=85.0 pbc="T T T"
O        0.43805062       0.00468675      -0.30134477       0.00331054       0.08239202      -0.07555180
H        0.22527877       0.88557000      -0.79444903       0.02379167       0.05520914      -0.06736571
H        1.19381029      -0.40559227      -0.70392576      -0.13134600       0.30050521       0.35927860
O       15.70576977      10.41186120      10.95625595       0.32930484       1.46571723      -0.32611258
H       16.56279919       9.95481772      11.25282135       0.12511410       0.38295590       0.06621832
H       14.97828744       9.72237918      10.99331705      -0.23290166       0.05150457      -0.21829333
O       -0.02949410       2.26180031      -1.42554939      -0.28773023       1.32037332       0.12435670
H       -0.47998498       2.66085224      -2.14008363       0.23350986      -0.08813614      -0.14678534
H        0.24159157       2.89042690      -0.73066007      -0.08301667      -0.14591970      -0.05407762
O       10.80782292       7.15824088      14.31611604      -1.67322555      -0.34937396      -1.58088264
H       10.59406369       7.63938626      13.46352260      -0.06103387      -0.13054238       0.09518823
H       11.68305880       7.55907296      14.62084781      -0.12422913      -0.00295591      -0.01394787
O       12.55630272       4.35794319      -6.78767939      -0.53375112      -1.36534844       0.90951355
H       12.50541287       4.46197295      -5.82071000       0.14138809      -0.00897804       0.03441718
H       13.19586863       3.60439093      -6.90767179      -0.07480593      -0.11167151      -0.14960936
O       15.21584138       1.43476293       8.81941057       0.67850306      -1.32413031      -0.01121578
H       15.69691081       2.23712155       8.97460182       0.02148265      -0.02345141       0.11074378
H       15.47636259       0.81343595       9.54683476       0.38100576       0.02840538      -0.20487540
O        5.77531328       7.30802249      14.07958106       0.56349183       0.70209898      -0.81007420
H        5.78408411       7.44130920      13.14756582       0.00397700       0.16239536       0.08920848
H        5.73072893       8.17390704      14.54550488       0.02445686      -0.16141746      -0.04849014
O        8.41084313      10.74260844      14.06079855       0.14387544      -1.23372505       0.37401508
H        5.28887741      16.70515388      15.32451734      -0.37515752       0.24885693      -0.21912965
H        8.01890360      11.66663330      13.96007756      -0.21174464       0.08757708      -0.16481135
O       10.20707472       0.37272507       5.82287541      -0.59185589       0.52348564      -1.58703810
H        7.66263661       3.03848517       9.47097143       0.05218511      -0.11825197       0.13384127
H        9.68052890       0.15983673       5.04821978       0.11904915      -0.10832622       0.02564627
O        5.31079767       5.31079767       5.31079767      -0.47927160      -0.04344681      -2.04249451
H        4.99333669       4.55815562       4.77810443      -0.28129704       0.28762513       0.06606709
H        9.66732330       0.22326054       6.60590208      -0.01079440      -0.04877136       0.09002552
O        8.72277240       9.39308708       9.72668583       0.01383079       0.59008354      -0.07753262
H        8.76680401       8.56989583       9.19833561      -0.11656108       0.14913182       0.02979800
H        9.68376052       9.62062674       9.84833646       0.04295473       0.00204341      -0.26619049
O        8.02469157       2.77975436       7.69544973      -0.15354982       0.60239737       1.09149195
H        7.71209665       1.84471862       7.70906142      -0.09819538      -0.14783321       0.10427487
H        8.64937834       2.93534889       6.98491774       0.08130607      -0.03051057       0.15310614
O       13.64967809       8.41914228      10.67969979       0.17317233      -0.95487350       0.42914697
H       13.68334906       7.94425105      11.54768606       0.19447840       0.24147208      -0.02453334
H       14.42174537       8.13436062      10.22318244      -0.22803008       0.04674690       0.09024697
O       13.58995568       7.71354618       7.50865263       0.70430052      -0.75284234      -0.02956444
H       12.76879483       7.37892106       7.93255556       0.01537307      -0.05485562      -0.04830703
H       13.35885291       7.68240752       6.54338714       0.13114016       0.06950991       0.35226550
O       15.31255875      11.42688284       5.84604144       0.73676226      -0.74902697      -0.35776438
H       14.45480302      10.98205150       5.97302274       0.12418783       0.05063055      -0.07199253
H       15.51815260      11.73935923       6.74220389      -0.21932108      -0.24911151       0.37525991
O       17.34357165       9.55617716      15.41404093      -0.05495549      -0.45306162      -0.22582229
H       18.03098566      10.07911195      14.83850623       0.13805150      -0.16379702      -0.12830579
H       16.60456870      10.17181600      15.60362399       0.20057998      -0.00925552       0.00115651
O        9.89888597       3.73769423       6.15254712       0.30075370       0.78393987       0.42972417
H        9.46487517       4.29391905       5.46982169      -0.01242556      -0.07148781      -0.05982733
H       10.05948669       2.86330141       5.79966084      -0.07056540       0.12918669       0.19540817
O        5.77018809      17.46209621      10.88023805       0.42110879       0.43723548      -0.18863822
H        5.99732478      17.93533990      10.09328439      -0.19542237      -0.14217896       0.03005831
H        5.14028686      16.74161381      10.71991101      -0.15256575      -0.23876127       0.17909672
O        4.50956269       2.91991674       4.02995732      -1.67405790       1.21776668       0.04878002
H        4.43585808       2.19977203       4.65917708      -0.12440339       0.04585699      -0.09532082
H        5.29994739       2.65367108       3.51183648      -0.14949646      -0.28267658      -0.06954551
O       16.14486059       8.06609086       8.48488736      -0.38759651      -0.40369096      -0.76098500
H       15.69104974       8.93730832       8.53512944       0.03519103      -0.16430199       0.18890803
H       15.54851299       7.54022947       7.96149091       0.16514897      -0.35440465      -0.16758439
O       15.04812850      14.90862574       1.06103212      -0.86990036       1.29037667       0.46705403
H       14.60369348      14.46130143       0.33982652      -0.14953362      -0.08658021       0.24447352
H       15.81222892      14.38462729       1.25116666      -0.08178411       0.10043016       0.06704935
O        6.46918579       2.17067431      12.84086950       1.60552499      -0.27115647       1.33071358
H        5.85931079       1.41153286      12.76448937       0.19841904      -0.23349908       0.20917838
H        6.90420868       2.39752258      11.93206788      -0.17095839      -0.40694552       0.03167567
O       13.64093751       6.54578748      13.02982899       0.92992179       0.35717962       0.94914214
H       13.17212967       5.86579497      13.62133005      -0.10884877       0.06034629      -0.17126821
H       14.55805334       6.19403113      12.95169657       0.09552369       0.10814159      -0.16435564
O       10.55559284      15.57522888      11.31625418      -0.56718036      -0.03155228      -0.58764883
H        9.59091854      15.64589245      11.58297154       0.14047595       0.22987272       0.04234843
H       11.09505680      15.36257548      12.03452294      -0.07406876       0.01592754       0.14220302
O       13.14312707      10.26372654      -3.01109164      -0.44222406       0.62804465      -0.45321985
H       13.51431818      10.88855659      -2.36631641       0.08323547      -0.13127574       0.43829306
H       13.32184313       9.34017681      -2.74913977       0.09277105       0.07558402      -0.16727992
O       10.81136065      -0.58662369      13.22671825      -0.51240314       1.19509508      -0.14641123
H       10.01375686      -0.11751740      13.63609281      -0.12370036      -0.07586220       0.12164806
H       10.93285630      -0.11851851      12.35164506      -0.10871491       0.25567246      -0.01873388
O        7.94449411       5.32850803      12.10722031      -0.54884700      -0.95864156       1.26469809
H        8.18624659       5.33714965      13.02902579       0.32166182      -0.34152499      -0.21054956
H        7.44907189       6.13703204      11.91930765      -0.12064911      -0.03169385      -0.02956061
O        7.30740933       3.07353512      10.36498640       0.88544232      -0.25051361       0.54335021
H        7.36844669       3.90697810      10.89305458       0.14321538      -0.07861083       0.29879607
H       11.75872143       4.75858737       6.67757299       0.14012801       0.38249761       0.23893320
O       17.78458984       9.17432717      12.11360563       0.84344905       0.45129427      -0.29816278
H       18.31586216       8.98599045      11.31960654      -0.19334916      -0.10136354      -0.19628138
H       18.42485137       9.60143907      12.79009403       0.05604313       0.13966875       0.24755937
O       13.02209758       0.21896014      14.96187997       0.14093624      -0.34032054      -0.11804112
H       12.40141333       0.22950652      15.77561097       0.00162759       0.17942288       0.00121995
H       12.37144100      -0.11215824      14.27236657      -0.25616524      -0.00830170      -0.02178306
O        8.56294552       7.94516977       5.83456775       0.43620789      -0.86124095       0.32097174
H        7.91935677       8.68795680       5.54083802      -0.21939394      -0.07470525       0.11180591
H        9.41558152       8.01406218       5.44161481      -0.12109672      -0.14084821      -0.01466686
O       18.59352646       0.13531077       7.59584819       0.88985598       0.67873454      -0.77448753
H       18.87975089      -0.19998352       8.52753954      -0.30947561      -0.13723714       0.09496827
H       17.80731249      -0.44027509       7.38334084       0.36160990      -0.03382377      -0.16136057
O       11.26961097       6.88226853      19.66459498      -0.57654278       0.08309600       0.10130260
H       10.39486399       6.79575847      19.35065871       0.14880149       0.12444760      -0.11972264
H       11.24645133       6.45773920      20.54188119      -0.24225605       0.04440712       0.14495103
O       13.16911550       8.17406703       4.65119866       0.60704546      -1.09219799      -0.48018191
H       13.63923096       7.77473729       3.87208797      -0.10804134      -0.02110733       0.17101093
H       13.46492446       9.10317161       4.67039546       0.12216266       0.04192940      -0.46764617
O       19.25983259       5.63178145       4.29595685      -0.27481675      -1.29879877      -0.45057242
H       18.55215210       6.27454701       4.39864489      -0.20160426       0.15620149       0.04335077
H       20.00108312       6.16517732       3.94348554       0.01546884       0.02204340      -0.01031167
O        8.57230109      -3.77903005       8.29335557       0.14227417      -1.18889509       0.63616756
H        8.50421600      -3.39509886       7.40136738       0.11235015       0.24804982      -0.14611550
H        7.70928298      -4.18899837       8.49074704      -0.04065191      -0.01220979       0.29098386
O       16.58145227       4.40294186       7.90652825       0.06045294       0.09429972       1.30788964
H       16.34666454       4.69815593       6.98787669       0.00785683      -0.23516956      -0.18174801
H       17.42305728       3.89914636       7.74289389       0.18316634       0.13691933      -0.21673878
O       12.64495500       2.48022388       0.87038993      -0.41519194       0.40871866      -1.06642507
H       12.69990514       3.25070597       1.47606153       0.17524643      -0.17428697       0.29396175
H       12.96194975       1.76913524       1.44471861      -0.08511595       0.33924880      -0.03976340
O        3.37618382      14.85259162       8.61367208       0.09519529      -0.57815461       0.64182872
H        2.91792431      14.03897171       8.97926818       0.20076069      -0.02890464      -0.15240109
H        4.30062437      14.57028385       8.38661598      -0.12523718      -0.03529969       0.15367029
O       12.60211411       5.13804674       6.29997144       0.19022839       1.61002291       0.05458590
H       13.26439037       4.99097729       6.98087876       0.08721475       0.22506294      -0.02491974
119
Lattice="10.607884295518259 0.0 0.0 0.0 10.607884295518259 0.0 0.0 0.0 10.607884295518259" Properties=species:S:1:pos:R:3:momenta:R:3 charge=-1 spin=1 external_field="_JSON [0.0, 0.0, 0.0]" TEMP=350.0 frame=180 VACF=0.00038339437261083624 "time /fs"=90.0 pbc="T T T"
O        0.43873438       0.00414186      -0.23530448      -0.44507600       0.14696234       0.20422582
H        0.29536475       0.79466586      -0.72516680       0.12666498      -0.06121102      -0.07375417
H        1.32825207      -0.36018525      -0.55954397       0.29150127       0.06003893       0.12330261
O       15.70572741      10.42870082      10.99378213       0.10792335       1.53714921      -0.54013070
H       16.53430924      10.10316250      11.36381559      -0.07597711       0.17736467       0.23272368
H       14.99148768       9.82103762      10.97161679       0.12980070       0.22442558      -0.04879715
O       -0.01977010       2.28002663      -1.35562858      -0.16275313       0.88228455      -0.10389367
H       -0.40397366       2.69284896      -2.16825909       0.16501746       0.15608805       0.02258423
H        0.20673803       2.92495901      -0.65678411      -0.11999069       0.34683900       0.07650715
O       10.75978694       7.12724621      14.31514083      -1.64076119      -0.56820256      -1.30204772
H       10.57053076       7.62102095      13.51613268      -0.10621100       0.25889125      -0.29550656
H       11.55293685       7.52166486      14.66324881      -0.16747022       0.02179857       0.09091049
O       12.53925954       4.29412535      -6.69511456      -0.63556523      -1.49608286       0.52679818
H       12.59211362       4.47738619      -5.71383246       0.20920227       0.10642986       0.01266481
H       13.15014802       3.59790075      -6.87762451       0.06296393      -0.04787243      -0.04762101
O       15.23266101       1.38265001       8.86922974       0.89599642      -1.07893630      -0.09947560
H       15.71886267       2.21704277       9.07334451      -0.00925402      -0.13272744       0.01310655
H       15.65579452       0.79510466       9.54624262       0.33208657      -0.08012631      -0.02017312
O        5.79700624       7.30140755      14.10504890       0.40064570       0.25733783      -0.87276382
H        5.82018520       7.55651056      13.13344173       0.11623604       0.29939436      -0.02405354
H        5.82051535       8.16293087      14.57518488       0.30552561       0.23133245       0.03624567
O        8.41494957      10.68938259      14.11766411       0.04666927      -1.05248161       0.41101909
H        5.15321064      16.67244739      15.35295831      -0.20390569      -0.14632078       0.08994703
H        8.01873317      11.49516230      13.92971378       0.01958455      -0.26022172      -0.19448441
O       10.19623890       0.38110177       5.83770207      -0.33337411       0.68776065      -1.28233718
H        7.76178386       3.05600837       9.56130400       0.28264650       0.21186571       0.10856388
H        9.63580902       0.09281945       5.05955934      -0.18534943      -0.05062748      -0.06258677
O        5.30394215       5.30394215       5.30394215      -0.52162631       0.58208333      -2.10438780
H        4.82824179       4.57654023       4.81965798      -0.36553688      -0.07858997      -0.07468414
H        9.66402994       0.17428816       6.61559391       0.00512226      -0.09196464      -0.25818550
O        8.72951243       9.38745766       9.77444815       0.11549177       0.49019343      -0.17367163
H        8.68640972       8.55384522       9.24989664      -0.18461489      -0.08353472       0.00253112
H        9.67492177       9.63623827       9.82944270      -0.03210068       0.13940204      -0.02979481
O        8.01774580       2.77690150       7.78877679      -0.42538915       0.20488368       1.33138727
H        7.75383003       1.84032110       7.75969731       0.21805537       0.16132721      -0.09844659
H        8.70163035       2.93505213       7.08824190       0.01532840       0.08108636       0.15516934
O       13.64498615       8.37654425      10.74611359       0.03133590      -0.47087136       0.33205165
H       13.74741606       7.98812875      11.62985726       0.09701706      -0.02240768       0.24581686
H       14.43521847       8.02933068      10.22110648      -0.01913801      -0.26097708      -0.08718853
O       13.60605164       7.66725049       7.57113009       0.60153922      -0.88551973       0.57654896
H       12.80399730       7.30893657       7.99805805       0.10398401      -0.14582025       0.09076255
H       13.41388867       7.68717541       6.59866223       0.08333192       0.02666584      -0.35932476
O       15.33297364      11.38157819       5.90256439       0.87601887      -0.55475431       0.44498956
H       14.45747556      10.94602442       5.97044990      -0.07800235      -0.10178388      -0.21047554
H       15.41523680      11.57268326       6.86317795      -0.13398730      -0.29518352      -0.13723817
O       17.33279663       9.51560780      15.45106410      -0.02120922      -0.68898457      -0.27632202
H       18.09445881      10.00891754      14.81651138       0.09573125      -0.04085339      -0.07831326
H       16.67671352      10.18811719      15.69681656       0.08460813       0.20008995       0.19702383
O        9.90911939       3.75002083       6.22318151       0.29466176       0.81225406       0.45084537
H        9.46420746       4.24187284       5.50428384      -0.01179800      -0.04970568      -0.03330160
H       10.07946691       2.83522788       5.86176678       0.11773970       0.00422776      -0.08169685
O        5.78467991      17.43169788      10.93729106       0.13638064      -0.06257611       0.33445779
H        5.87879825      17.86206097      10.01986624      -0.34669445      -0.15254947      -0.23876163
H        5.18707041      16.68194290      10.83796748       0.27763875       0.08169648       0.11757386
O        4.47051425       2.93970170       4.08616810      -1.55597581       0.88692501      -0.02674580
H        4.35544433       2.18598722       4.73399491      -0.21249128       0.10494297       0.04579627
H        5.18032130       2.59743009       3.54629266      -0.27891505       0.08219857      -0.08815718
O       16.13079419       8.02946278       8.51309292      -0.06141910      -0.85391731      -0.91566656
H       15.67019974       8.85719280       8.65578225      -0.19604606       0.02824472       0.06922967
H       15.60627189       7.40693637       7.96005147       0.15597321       0.03974155       0.03458157
O       15.01598162      14.92214544       1.13801211      -0.77122519       1.36101413       0.46095926
H       14.50865838      14.38476095       0.49502565      -0.16300196      -0.05081917       0.20717635
H       15.80307110      14.36777227       1.36998898      -0.11148658       0.08441124       0.10545158
O        6.52169785       2.14633279      12.92755355       1.32111721      -0.50468227       1.46259818
H        6.03089536       1.32220465      12.86616475       0.36835958      -0.16144097       0.12923056
H        6.80890345       2.13427639      12.01645267      -0.03461545      -0.43619600      -0.21231254
O       13.66742551       6.53869596      13.10722260       0.92134209       0.70026634       0.91504929
H       13.15194569       5.86488777      13.54664572      -0.06490300      -0.16212062      -0.19212120
H       14.53511421       6.20578587      12.93431303       0.01900122      -0.07464030      -0.11577391
O       10.54188006      15.54301196      11.34283058       0.01897917      -0.16345484      -0.56748944
H        9.65631279      15.73430063      11.66578501      -0.11855991       0.28897820       0.11305279
H       11.04179737      15.35079251      12.18936148      -0.30549050       0.13505320      -0.04619114
O       13.12994909      10.26966690      -2.95077255      -0.23451337       1.20372412      -0.02296731
H       13.50508679      10.72733642      -2.19809027      -0.08947252      -0.33628359       0.00571317
H       13.36855266       9.32630113      -2.78096311       0.07044506      -0.02025150      -0.27053203
O       10.79812236      -0.55299592      13.26660812      -0.35574193       1.47281556      -0.08732768
H        9.96263342      -0.22268872      13.67944347      -0.13559484      -0.26115720      -0.10591303
H       10.86009504      -0.08273673      12.45215168      -0.15892469       0.06803705      -0.00628073
O        7.92993540       5.28004006      12.18371252      -0.55175619      -1.10597874       0.80573855
H        8.31000133       5.18928212      13.11957160       0.02217395      -0.11663285       0.10840570
H        7.40384005       6.07038765      11.98889701      -0.06196897      -0.16632404       0.17708976
O        7.33179122       3.04831211      10.44493818       0.41961339      -0.55481848       1.13801776
H        7.51060783       3.83783065      10.94691021       0.41695947      -0.00985377      -0.13067259
H       11.81602444       4.93770245       6.84863767      -0.10666680       0.34238237       0.31994233
O       17.80695314       9.16698271      12.15795317       0.96300846       0.50093675      -0.02510797
H       18.26045127       8.95758482      11.33273623       0.05402947       0.08985204       0.04389928
H       18.34556512       9.62916811      12.81792702      -0.18449876       0.09992537      -0.24899389
O       13.01115549       0.19415071      15.00256952      -0.40878743      -0.53059890      -0.38236369
H       12.46146635       0.32367238      15.75217448       0.03008476       0.27675275       0.07443817
H       12.32155966      -0.07400557      14.37454128      -0.00790353       0.16274420       0.13832394
O        8.56784118       7.90032177       5.90638283       0.14655265      -0.89551772       0.65440546
H        7.92220828       8.54725320       5.65465734       0.01692057      -0.17982595       0.01371625
H        9.43165541       7.97529937       5.41473323      -0.10422716       0.04802575      -0.18475959
O       18.61025078       0.14252089       7.63737041       0.88861475       0.62914897      -0.17125445
H       18.72052685      -0.23845445       8.51763283      -0.19960270      -0.00154579      -0.13794889
H       17.96057404      -0.47939935       7.28850429       0.14357144      -0.18009396      -0.54953156
O       11.26029691       6.86509435      19.71241265      -0.40957450       0.08760770       0.25250037
H       10.33253811       6.80703959      19.29191218      -0.00500878       0.02609985      -0.08837345
H       11.14419574       6.47456946      20.58240160      -0.18387234       0.06735760      -0.06874405
O       13.18820057       8.12484400       4.69759050       0.77565496      -0.62777543      -0.24358862
H       13.62478167       7.65610066       3.95444414       0.09011672      -0.42835295      -0.12586895
H       13.44073959       9.06050372       4.51835936      -0.21760498      -0.16411985      -0.33882234
O       19.23656722       5.57807067       4.33473883      -0.57236313      -0.99997032      -0.78873424
H       18.53315575       6.22538019       4.50238567       0.18283591      -0.31395578       0.11525959
H       19.99892181       6.13006061       4.06855349       0.01201944      -0.08867686       0.26533770
O        8.57813506      -3.81748552       8.36281790       0.15504939      -0.79560300       0.27726462
H        8.52806871      -3.35188372       7.45816332      -0.05175501      -0.13327945       0.28201696
H        7.74145541      -4.18008169       8.63431782       0.03847590       0.02540314       0.08896336
O       16.57976586       4.38976809       7.98731027       0.24167761       0.14983926       0.50611095
H       16.33332648       4.59147712       7.07148212      -0.09492253      -0.08457259       0.22161388
H       17.42174838       3.96099835       7.76619450      -0.05796223       0.11161825       0.12797837
O       12.63045422       2.48917606       0.90471091      -0.34006918       0.90485868      -0.70563610
H       12.75874230       3.14949336       1.59212465       0.05469349      -0.02604394      -0.03283911
H       12.94799031       1.76597747       1.50421103      -0.00746095      -0.26908446      -0.08280922
O        3.38647849      14.80443352       8.68855023      -0.04188843      -0.35602678       0.72508080
H        2.99247893      13.97673681       8.94610391      -0.09409392      -0.34643711      -0.09755353
H        4.30612557      14.56875007       8.49382868       0.22452945       0.13716723       0.04062813
O       12.60389893       5.17007737       6.35929551       0.33358947       1.67696932       0.17811952
H       13.30999003       5.06851184       7.03667947       0.04431151       0.17802471      -0.06094750
119
Lattice="10.59461707867272 0.0 0.0 0.0 10.59461707867272 0.0 0.0 0.0 10.59461707867272" Properties=species:S:1:pos:R:3:momenta:R:3 charge=-1 spin=1 external_field="_JSON [0.0, 0.0, 0.0]" TEMP=350.0 frame=190 VACF=-0.005424434499219651 "time /fs"=95.0 pbc="T T T"
O        0.46056122      -0.00567928      -0.16754800      -0.03159515      -0.05879324       0.07265401
H        0.35919603       0.85074575      -0.73869715       0.07023352      -0.00879824      -0.01548243
H        1.30411600      -0.30002278      -0.37264113      -0.02832669       0.00573781       0.25507191
O       15.71840153      10.47237341      11.02257275       0.38757176       1.94876714      -0.56483441
H       16.48493581      10.06982438      11.54646530      -0.24319857      -0.15228678       0.20087521
H       14.97063627       9.78026326      11.04242423       0.04758460      -0.03861109       0.11396020
O        0.00083573       2.30815759      -1.29039129       0.09673084       1.26814584       0.35133562
H       -0.29919115       2.78166167      -2.05457973       0.07321973       0.27567846      -0.09076083
H        0.12852243       3.02127746      -0.66242320      -0.23135366       0.08663447      -0.21594412
O       10.71438808       7.10316412      14.31005939      -1.66779586      -0.06857769      -1.79834013
H       10.56570889       7.68504593      13.54690411       0.04964876       0.01565442       0.27861528
H       11.51258227       7.53053002      14.76966529      -0.23474017      -0.05261789       0.04959670
O       12.52450464       4.24070989      -6.61177818      -0.59240856      -1.60632500       0.21442320
H       12.69038627       4.52086463      -5.69052795       0.14562316       0.12047764      -0.11805342
H       13.22756685       3.56563512      -6.79570854       0.07376880       0.10120906       0.13024258
O       15.27027609       1.34301742       8.92019037       1.24812760      -1.26861353       0.03449728
H       15.71368337       2.17827233       9.09056715       0.03721185       0.11456495      -0.12216795
H       15.72962188       0.76475818       9.55576446      -0.01181795      -0.06200144      -0.10172505
O        5.82333143       7.30761002      14.11822334       0.37160339       0.93401682      -0.83467440
H        5.91270072       7.65258339      13.24571301       0.19985652       0.20041838      -0.03603262
H        6.02586461       8.15561639      14.60489756       0.42328908      -0.25209680      -0.06036816
O        8.43116393      10.62926044      14.17674634      -0.01657708      -1.29297270       0.38965933
H        5.08373632      16.71090467      15.35645641      -0.10435608       0.18388801      -0.11604023
H        8.00604657      11.50379916      13.85590591       0.12791603      -0.12140354      -0.12810070
O       10.19483419       0.39811297       5.84348147      -0.37121177       0.65314734      -1.63161061
H        7.88075336       3.12199120       9.71810245       0.14940333      -0.02036610       0.19507837
H        9.60325490       0.14354859       5.13946138      -0.07293244       0.21980990      -0.04326224
O        5.29730854       5.29730854       5.29730854      -0.87744643      -0.03019016      -1.94737867
H        4.77519500       4.60320164       4.91341384      -0.01165698       0.10052438       0.12622920
H        9.64420327       0.11415859       6.61163433      -0.03587755      -0.09120524      -0.01894500
O        8.74006391       9.38146974       9.81580411      -0.14175941       0.23048998      -0.26936362
H        8.65474468       8.54442235       9.35243062       0.03073051       0.00742131       0.14394806
H        9.68360998       9.67881137       9.89410281      -0.01509672       0.05082232       0.06652116
O        8.01970554       2.78242797       7.88140195      -0.33675229       0.44546970       1.37821417
H        7.85664824       1.80348064       7.74775021       0.15425950      -0.18272079      -0.12638511
H        8.69438535       3.01385636       7.23322214       0.01139713       0.30019492       0.12085332
O       13.66058284       8.34758120      10.80598813       0.34719669      -0.37610940       0.65413447
H       13.76307103       7.96915443      11.69072758      -0.06891617       0.00085680      -0.16419326
H       14.30457959       7.89779736      10.31300286      -0.21836914      -0.37943146       0.01486577
O       13.62749880       7.62788714       7.62876748       0.47869051      -0.85292242      -0.13077083